------------------------------------------------------------
          Invoking FHI-aims ...

          When using FHI-aims, please cite the following reference:

            Volker Blum, Ralf Gehrke, Felix Hanke, Paula Havu,
            Ville Havu, Xinguo Ren, Karsten Reuter, and Matthias Scheffler,
            'Ab Initio Molecular Simulations with Numeric Atom-Centered Orbitals',
            Computer Physics Communications 180, 2175-2196 (2009)

          In addition, many other developments in FHI-aims are likely important for
          your particular application. A partial list of references is given at the end of
          this file. Thank you for giving credit to the authors of these developments.

          For any questions about FHI-aims, please visit our slack channel at

            https://fhi-aims.slack.com

          and our main development and support site at

            https://aims-git.rz-berlin.mpg.de .

          The latter site, in particular, has a wiki to collect information, as well
          as an issue tracker to log discussions, suggest improvements, and report issues
          or bugs. https://aims-git.rz-berlin.mpg.de is also the main development site
          of the project and all new and updated code versions can be obtained there.
          Please send an email to aims-coordinators@fhi-berlin.mpg.de and we will add
          you to these sites. They are for you and everyone is welcome there.

------------------------------------------------------------



  Date     :  20230426, Time     :  001834.244
  Time zero on CPU 1             :   0.405270000000000E-01  s.
  Internal wall clock time zero  :           451700314.244  s.

  FHI-aims created a unique identifier for this run for later identification
  aims_uuid : 38D8194C-4517-4271-AA33-FA454EE42BD7

  Build configuration of the current instance of FHI-aims
  -------------------------------------------------------
  FHI-aims version      : 221103
  Commit number         : GITDIR-NOTFOUND
  CMake host system     : Linux-3.10.0-1127.13.1.el7.x86_64
  CMake version         : 3.21.1
  Fortran compiler      : /shared/ucl/apps/intel/2022.2/mpi/2021.6.0/bin/mpif90 (Intel) version 19.1.0.20191121
  Fortran compiler flags: -O3 -ip -fp-model precise
  C compiler            : /shared/ucl/apps/intel/2020/compilers_and_libraries_2020.0.166/linux/bin/intel64/icc (Intel) version 19.1.0.20191121
  C compiler flags      : -O3 -ip -fp-model precise -std=gnu99
  HIP compiler          :
  HIP compiler flags    :
  HIP GPU arch          :
  Using MPI
  Using ScaLAPACK
  Using LibXC
  Using i-PI
  Using RLSY
  Linking against: /shared/ucl/apps/intel/2020/mkl/lib/intel64/libmkl_intel_lp64.so
                   /shared/ucl/apps/intel/2020/mkl/lib/intel64/libmkl_sequential.so
                   /shared/ucl/apps/intel/2020/mkl/lib/intel64/libmkl_core.so
                   /shared/ucl/apps/intel/2020/mkl/lib/intel64/libmkl_blacs_intelmpi_lp64.so
                   /shared/ucl/apps/intel/2020/mkl/lib/intel64/libmkl_scalapack_lp64.so

  Using        2 parallel tasks.
  Task        0 on host node-c12k-004 reporting.
  Task        1 on host node-c12k-004 reporting.

  Performing system and environment tests:
  *** Environment variable OMP_NUM_THREADS is not set
  *** For performance reasons you might want to set it to 1
  | Checking for ScaLAPACK...
  | Testing pdtran()...
  | All pdtran() tests passed.

  Obtaining array dimensions for all initial allocations:
  
  -----------------------------------------------------------------------
  Parsing control.in (first pass over file, find array dimensions only).
  The contents of control.in will be repeated verbatim below
  unless switched off by setting 'verbatim_writeout .false.' .
  in the first line of control.in .
  -----------------------------------------------------------------------
  
  xc                 pbe
  spin               none
  relativistic       atomic_zora scalar
  
  # 3d PBC
  #k-point grid
  #k_grid	12	12	12
  #k_grid	7       7       7
  #k_grid	6       6       6
  #k_grid	5       5	5
  #k_grid	4       4       4
  
  # SCF convergence
  occupation_type    gaussian 0.01
  mixer              pulay
  n_max_pulay        8		# default value 8
  charge_mix_param   0.2		# non-metallic conservative value
  sc_accuracy_rho    1E-6		# density check
  sc_accuracy_eev    1E-3		# eigen value check
  #sc_accuracy_etot   1E-5
  #sc_accuracy_forces 1E-4
  sc_accuracy_forces not_checked
  sc_iter_limit	2000
  
  # Relaxation
  #relax_unit_cell  full
  relax_geometry   bfgs 1.e-3
  
  # Constrained Opti
  #relax_unit_cell        fixed_angles
  
  output dipole
  
  ################################################################################
  #
  #  FHI-aims code project
  #  Volker Blum, 2017
  #
  #  Suggested "intermediate" defaults for O atom (to be pasted into control.in file)
  #
  ################################################################################
    species        O
  #     global species definitions
      nucleus             8
      mass                15.9994
  #
      l_hartree           6
  #
      cut_pot             4.0  2.0  1.0
      basis_dep_cutoff    1e-4
  #
      radial_base         36 7.0
      radial_multiplier   2
       angular_grids specified
        division   0.1817   50
        division   0.3417  110
        division   0.4949  194
        division   0.6251  302
        division   0.8014  434
  #      division   0.8507  590
  #      division   0.8762  770
  #      division   0.9023  974
  #      division   1.2339 1202
  #      outer_grid 974
        outer_grid  434
  ################################################################################
  #
  #  Definition of "minimal" basis
  #
  ################################################################################
  #     valence basis states
      valence      2  s   2.
      valence      2  p   4.
  #     ion occupancy
      ion_occ      2  s   1.
      ion_occ      2  p   3.
  ################################################################################
  #
  #  Suggested additional basis functions. For production calculations,
  #  uncomment them one after another (the most important basis functions are
  #  listed first).
  #
  #  Constructed for dimers: 1.0 A, 1.208 A, 1.5 A, 2.0 A, 3.0 A
  #
  ################################################################################
  #  "First tier" - improvements: -699.05 meV to -159.38 meV
       hydro 2 p 1.8
       hydro 3 d 7.6
       hydro 3 s 6.4
  #  "Second tier" - improvements: -49.91 meV to -5.39 meV
       hydro 4 f 11.6
  #     hydro 3 p 6.2
  #     hydro 3 d 5.6
    for_aux    hydro 5 g 17.6
  #     hydro 1 s 0.75
  #  "Third tier" - improvements: -2.83 meV to -0.50 meV
  #     ionic 2 p auto
  #     hydro 4 f 10.8
  #     hydro 4 d 4.7
  #     hydro 2 s 6.8
  #  "Fourth tier" - improvements: -0.40 meV to -0.12 meV
  #     hydro 3 p 5
  #     hydro 3 s 3.3
  #     hydro 5 g 15.6
  #     hydro 4 f 17.6
  #     hydro 4 d 14
  # Further basis functions - -0.08 meV and below
  #     hydro 3 s 2.1
  #     hydro 4 d 11.6
  #     hydro 3 p 16
  #     hydro 2 s 17.2
  ################################################################################
  #
  #  FHI-aims code project
  #  Tong Zhu, Will Huhn and Volker Blum, Duke University 2018
  #
  #  Suggested "intermediate" defaults for Sr atom (to be pasted into control.in file)
  #
  #  Rb, Sr, Cs and Ba are very large atoms. This requires uncomfortably large
  #  cut_pot radii (the high cut_pot values are especially costly for hybrid DFT
  #  calculations, both regarding time and memory). Additionally, since they are
  #  relatively heavy elements, high-accuracy basis set convergence actually
  #  requires more radial functions than for their light-element counterparts.
  #
  #  Compared to the "tight" settings, the "intermediate" settings for Sr are
  #  reduced in the following way:
  #
  #  - cut_pot from 6.0 Angstrom to 5.25 Angstrom
  #
  #  The cut_pot value has a noticeable effect particularly for neutral situations
  #  (the Sr dimer is a good example) and we were not comfortable with reducing it more.
  #  ("intermediate" still implies high accuracy.) However, a comparison to the "light"
  #  settings (which are not crazy) shows that further reductions are possible in many
  #  situations, if the cut_pot value for Sr is the bottleneck. (Note that some internal
  #  cutoffs in current FHI-aims are set according to the largest atom, and so in principle,
  #  even a single Sr atom in a large structure can have a noticeable effect on memory and
  #  speed.)
  #
  ################################################################################
    species          Sr
  #     global species definitions
      nucleus        38
      mass           87.62
  #
      l_hartree      6
  #
      cut_pot        5.25  2.0  1.0
      basis_dep_cutoff    1e-4
  #
      radial_base    57  7.0
      radial_multiplier  2
      angular_grids specified
        division   0.6981  110
        division   0.9394  194
        division   1.1230  302
        division   1.2482  434
  #      division   1.3391  590
  #      division   1.4365  770
  #      division   7.0005  974
  #      outer_grid  974
        outer_grid  434
  ################################################################################
  #
  #  Definition of "minimal" basis
  #
  ################################################################################
  #     valence basis states
      valence      5  s   2.
      valence      4  p   6.
      valence      3  d  10.
  #     ion occupancy
      ion_occ      5  s   1.
      ion_occ      4  p   6.
      ion_occ      3  d  10.
  ################################################################################
  #
  #  Suggested additional basis functions. For production calculations,
  #  uncomment them one after another (the most important basis functions are
  #  listed first).
  #
  #  Constructed for dimers: 2.75, 3.50, 4.40, 5.00 A
  #
  ################################################################################
  #  "First tier" - improvements: -289.57 meV to -14.02 meV
       ionic 4 d auto
       ionic 5 p auto
       hydro 4 f 5.6
       ionic 5 s auto
  #  "Second tier" - improvements: -4.95 meV to -0.45 meV
       hydro 5 g 7.4
  #     hydro 4 d 4.4
  #     hydro 3 p 3.3
  #     hydro 6 h 10.4
  #     hydro 5 s 4.9
  #     hydro 5 f 13.2
  #  "Third tier" - improvements: -0.38 meV to -0.11 meV
  #     hydro 6 p 4.8
  #     hydro 5 f 6
  #     hydro 2 p 1.2
  #     hydro 1 s 0.55
  #     hydro 5 d 3.6
  #  "Fourth tier" - improvements: -0.12 meV and lower.
  #     hydro 5 p 5.2
  #     hydro 4 f 14.8
  #     hydro 5 g 7.6
  #     hydro 4 p 4.5
  #     hydro 5 d 5.4
  #     hydro 6 s 6.8
  ################################################################################
  #
  #  FHI-aims code project
  #  Volker Blum, 2018
  #
  #  Suggested "intermediate" defaults for Sn atom (to be pasted into control.in file)
  #
  #  2020/09/15 These "intermediate" settings are identical to past "tight" defaults
  #             and differ only in the "g" function that is now included in "tight".
  #
  ################################################################################
    species        Sn
  #     global species definitions
      nucleus             50
      mass                118.710
  #
      l_hartree           6
  #
      cut_pot             4.0  2.0  1.0
      basis_dep_cutoff    1e-4
  #
      radial_base         63 7.0
      radial_multiplier   2
      angular_grids specified
        division   0.1666  110
        division   0.9058  302
        division   0.9669  434
  #      division   1.0315  590
  #      division   1.0999  770
  #      division   3.0459  974
  #      outer_grid  974
        outer_grid  434
  ################################################################################
  #
  #  Definition of "minimal" basis
  #
  ################################################################################
  #     valence basis states
      valence      5  s   2.
      valence      5  p   2.
      valence      4  d  10.
  #     ion occupancy
      ion_occ     5  s   1.
      ion_occ     5  p   1.
      ion_occ     4  d  10.
  ################################################################################
  #
  #  Suggested additional basis functions. For production calculations,
  #  uncomment them one after another (the most important basis functions are
  #  listed first).
  #
  #  Constructed for dimers: 2.10 A, 2.40 A, 3.75 A, 3.50 A, 4.50 A
  #
  ################################################################################
  #  "First tier" - max. impr. -189.53  meV, min. impr. -22.71 meV
       hydro 2 p 1.3
       hydro 3 d 3.7
       hydro 4 f 7.4
       ionic 5 s auto
  #  "Second tier" - max. impr. -15.73 meV, min. impr. -0.95 meV
  #     hydro 5 g 10.4
  #     hydro 4 p 6
  #     hydro 4 f 20
  #     hydro 3 d 4.3
  #     hydro 6 h 14.4
  #     hydro 4 f 5.6
  #     hydro 3 s 2.4
  #  "Third tier" - max. impr. -0.66 meV, min. impr. -0.09 meV
  #     hydro 5 g 9.2
  #     hydro 3 p 2.6
  #     hydro 3 d 7.2
  #     hydro 6 h 12.4
  #     hydro 5 f 38
  #     hydro 1 s 0.55
  #  "Fourth tier" - max. impr. -0.13 meV, min. impr. -0.04 meV
  #     hydro 4 p 8.4
  #     hydro 4 d 8
  #     hydro 6 p 2.1
  #     hydro 5 f 8.6
  #     hydro 1 s 4.2
  ################################################################################
  #
  #  FHI-aims code project
  #  Volker Blum, Fritz Haber Institute Berlin, 2009
  #  Tong Zhu, Will Huhn and Volker Blum, Duke University 2018
  #
  #  Suggested "intermediate" defaults for Ba atom (to be pasted into control.in file)
  #
  #  Rb, Sr, Cs and Ba are very large atoms. This requires uncomfortably large
  #  cut_pot radii (the high cut_pot values are especially costly for hybrid DFT
  #  calculations, both regarding time and memory). Additionally, since they are
  #  relatively heavy elements, high-accuracy basis set convergence actually
  #  requires more radial functions than for their light-element counterparts.
  #
  #  Compared to the "tight" settings, the "intermediate" settings for Ba are
  #  reduced in the following way:
  #
  #  - cut_pot from 6.0 Angstrom to 5.5 Angstrom
  #  - the 5g function from tier2 is not used
  #
  #  The cut_pot value has a noticeable effect particularly for neutral situations
  #  (the Ba dimer is a good example) and we were not comfortable with reducing it more.
  #  ("intermediate" still implies high accuracy.) However, a comparison to the "light"
  #  settings (which are not crazy) shows that further reductions are possible in many
  #  situations, if the cut_pot value for Ba is the bottleneck. (Note that some internal
  #  cutoffs in current FHI-aims are set according to the largest atom, and so in principle,
  #  even a single Ba atom in a large structure can have a noticeable effect on memory and
  #  speed.)
  #
  ################################################################################
    species          Ba
  #     global species definitions
      nucleus        56
      mass           137.327
  #
      l_hartree      6
  #
      cut_pot        5.5  2.0  1.0
      basis_dep_cutoff    1e-4
  #
      radial_base    65  7.0
      radial_multiplier  2
      angular_grids specified
        division   0.6752  110
        division   0.9746  194
        division   1.2241  302
        division   1.3850  434
  #      division   1.4734  590
  #      division   1.6010  770
  #      division   4.8366  974
  #      outer_grid  974
        outer_grid  434
  ################################################################################
  #
  #  Definition of "minimal" basis
  #
  ################################################################################
  #     valence basis states
      valence      6  s   2.
      valence      5  p   6.
      valence      4  d  10.
  #     ion occupancy
      ion_occ      6  s   1.
      ion_occ      5  p   6.
      ion_occ      4  d  10.
  ################################################################################
  #
  #  Suggested additional basis functions. For production calculations,
  #  uncomment them one after another (the most important basis functions are
  #  listed first).
  #
  #  Constructed for dimers: 2.65, 3.00, 3.50, 4.40, 5.50 Ang
  #
  ################################################################################
  #  "First tier" - improvements: -1277.43 meV to -9.16 meV
       ionic 5 d auto
       ionic 4 f auto
       hydro 3 p 2.7
       hydro 4 s 3.3
  #  "Second tier" - improvements: -64.04 (!) meV to -0.25 meV
       hydro 4 f 5.8
  #     hydro 5 g 7.4
  #     hydro 4 d 4.5
  #     hydro 6 h 11.2
  #     hydro 5 p 6.6
  #     hydro 2 s 3.2
  #  "Third tier" - max. impr. -1.16 meV, min. impr. -0.08 meV
  #     hydro 5 f 7.4
  #     hydro 5 g 10.8
  #     hydro 4 d 2.3
  #     hydro 4 p 3.7
  #     hydro 5 s 4.0
  #  Further functions - impr. -0.35 meV and below
  #     hydro 5 d 3.5
  #     hydro 6 d 0.4
  #     hydro 2 p 2.5
  #     hydro 5 f 12
  #     hydro 6 d 8.8
  ################################################################################
  #
  #  FHI-aims code project
  #  Volker Blum, 2017
  #
  #  Suggested "intermediate" defaults for Pb atom (to be pasted into control.in file)
  #
  ################################################################################
    species        Pb
  #     global species definitions
      nucleus             82
      mass                207.2
  #
      l_hartree           6
  #
      cut_pot             4.0  2.0  1.0
      basis_dep_cutoff    1e-4
  #
      radial_base         74 7.0
      radial_multiplier   2
      angular_grids specified
        division   0.1064  110
        division   0.1579  194
        division   0.2150  302
        division   1.0164  434
  #      division   1.1544  590
  #      division   1.1970  770
  #      division   7.7779  974
  #      outer_grid  974
        outer_grid  434
   ################################################################################
  #
  #  Definition of "minimal" basis
  #
  ################################################################################
  #     valence basis states
      valence      6  s   2.
      valence      6  p   2.
      valence      5  d  10.
      valence      4  f  14.
  #     ion occupancy
      ion_occ     6  s    1.
      ion_occ     6  p    1.
      ion_occ     5  d   10.
      ion_occ     4  f   14.
  ################################################################################
  #
  #  Suggested additional basis functions. For production calculations,
  #  uncomment them one after another (the most important basis functions are
  #  listed first).
  #
  #  Constructed for dimers: 2.225, 2.50, 2.88, 3.625, 4.50
  #
  ################################################################################
  #  "First tier" - max. impr. -156.54 meV, min. impr. -14.49 meV
       hydro 3 p 2.3
       hydro 4 f 7.6
       hydro 3 d 3.5
       for_aux    hydro 5 g 9.8
       hydro 3 s 3.2
  #  "Second tier" - max. impr. -4.38  meV, min. impr. -0.30 meV
  #     hydro 6 h 12.8
  #     hydro 3 d 2.4
  #     hydro 5 f 7.2
  #     hydro 5 f 14.8
  #     hydro 4 p 5.4
  #     ionic 6 s auto
  #  "Third tier" - max. impr. -0.86 meV, min. impr. -0.16 meV
  #     hydro 5 p 14.4
  #     hydro 5 g 8.2
  #     hydro 4 d 4.6
  #     hydro 6 h 12.4
  #     hydro 6 d 12.4
  #     hydro 4 s 4
  #     hydro 5 g 32.8
  #     hydro 5 f 9.4
  #  Further functions: -0.10 meV and below
  #     hydro 5 f 17.6
  #     hydro 7 p 19.6
  
  -----------------------------------------------------------------------
  Completed first pass over input file control.in .
  -----------------------------------------------------------------------
  
  
  -----------------------------------------------------------------------
  Parsing geometry.in (first pass over file, find array dimensions only).
  The contents of geometry.in will be repeated verbatim below
  unless switched off by setting 'verbatim_writeout .false.' .
  in the first line of geometry.in .
  -----------------------------------------------------------------------
  
  #FHIaims 22
  atom	-0.003056888682455702	-0.011066067436022302	-0.0027386653901907893	O
  atom	2.143417406822982	-0.1332105319311285	-0.006559957690515982	Pb
  atom	1.9947092640869244	2.0005300263758037	0.004998652017787917	O
  atom	-0.14189131339946157	2.1341069484107047	-0.00714637034035897	Pb
  
  -----------------------------------------------------------------------
  Completed first pass over input file geometry.in .
  -----------------------------------------------------------------------
  

  Basic array size parameters:
  | Number of species                 :        5
  | Number of atoms                   :        4
  | Max. basis fn. angular momentum   :        4
  | Max. atomic/ionic basis occupied n:        6
  | Max. number of basis fn. types    :        3
  | Max. radial fns per species/type  :       15
  | Max. logarithmic grid size        :     1491
  | Max. radial integration grid size :      149
  | Max. angular integration grid size:      434
  | Max. angular grid division number :        8
  | Radial grid for Hartree potential :     1491
  | Number of spin channels           :        1

------------------------------------------------------------
          Reading file control.in.
------------------------------------------------------------
  XC: Using PBE gradient-corrected functionals.
  Spin treatment: No spin polarisation.
  Scalar relativistic treatment of kinetic energy: on-site free-atom approximation to ZORA.
  Occupation type: Gaussian broadening, width =   0.100000E-01 eV.
  Using pulay charge density mixing.
  Pulay mixing - number of memorized iterations:    8
  Charge density mixing - mixing parameter:     0.2000
  Convergence accuracy of self-consistent charge density:  0.1000E-05
  Convergence accuracy of sum of eigenvalues:  0.1000E-02
  | Force self-consistency will not be checked explicitly.
  Maximum number of s.-c. iterations  :  2000
  Geometry relaxation: Modified BFGS - TRM (trust radius method) for lattice optimization.
  Convergence accuracy for geometry relaxation: Maximum force <   0.100000E-02 eV/A.
  Dipole moment will be written out.
 
  Reading configuration options for species O                   .
  | Found nuclear charge :   8.0000
  | Found atomic mass :    15.9994000000000      amu
  | Found l_max for Hartree potential  :   6
  | Found cutoff potl. onset [A], width [A], scale factor :    4.00000    2.00000    1.00000
  | Threshold for basis-dependent cutoff potential is   0.100000E-03
  | Found data for basic radial integration grid :    36 points, outermost radius =    7.000 A
  | Found multiplier for basic radial grid :   2
  | Found angular grid specification: user-specified.
  | Specified grid contains     6 separate shells.
  | Check grid settings after all constraints further below.
  | Found free-atom valence shell :  2 s   2.000
  | Found free-atom valence shell :  2 p   4.000
  | Found free-ion valence shell :  2 s   1.000
  | Found free-ion valence shell :  2 p   3.000
  | Found hydrogenic basis function :  2 p   1.800
  | Found hydrogenic basis function :  3 d   7.600
  | Found hydrogenic basis function :  3 s   6.400
  | Found hydrogenic basis function :  4 f  11.600
  | Found hydrogenic extended basis function :  5 g  17.600
  Species O                   : Missing cutoff potential type.
  Defaulting to exp(1/x)/(1-x)^2 type cutoff potential.
  Species O : No 'logarithmic' tag. Using default grid for free atom:
  | Default logarithmic grid data [bohr] : 0.1000E-03 0.1000E+03 0.1012E+01
  Species O : On-site basis accuracy parameter (for Gram-Schmidt orthonormalisation) not specified.
  Using default value basis_acc =  0.1000000E-03.
  Species O                   : Using default innermost maximum threshold i_radial=  2 for radial functions.
  Species O                   : Default cutoff onset for free atom density etc. : 0.40000000E+01 AA.
  Species O                   : Basic radial grid will be enhanced according to radial_multiplier =   2, to contain    73 grid points.
 
  Reading configuration options for species Sr                  .
  | Found nuclear charge :  38.0000
  | Found atomic mass :    87.6200000000000      amu
  | Found l_max for Hartree potential  :   6
  | Found cutoff potl. onset [A], width [A], scale factor :    5.25000    2.00000    1.00000
  | Threshold for basis-dependent cutoff potential is   0.100000E-03
  | Found data for basic radial integration grid :    57 points, outermost radius =    7.000 A
  | Found multiplier for basic radial grid :   2
  | Found angular grid specification: user-specified.
  | Specified grid contains     5 separate shells.
  | Check grid settings after all constraints further below.
  | Found free-atom valence shell :  5 s   2.000
  | Found free-atom valence shell :  4 p   6.000
  | Found free-atom valence shell :  3 d  10.000
  | Found free-ion valence shell :  5 s   1.000
  | Found free-ion valence shell :  4 p   6.000
  | Found free-ion valence shell :  3 d  10.000
  | Found ionic basis function :  4 d , default cutoff radius.
  | Found ionic basis function :  5 p , default cutoff radius.
  | Found hydrogenic basis function :  4 f   5.600
  | Found ionic basis function :  5 s , default cutoff radius.
  | Found hydrogenic basis function :  5 g   7.400
  Species Sr                  : Missing cutoff potential type.
  Defaulting to exp(1/x)/(1-x)^2 type cutoff potential.
  Species Sr: No 'logarithmic' tag. Using default grid for free atom:
  | Default logarithmic grid data [bohr] : 0.1000E-03 0.1000E+03 0.1012E+01
  | Will include ionic basis functions of  1.0-fold positive Sr                   ion.
  Species Sr: On-site basis accuracy parameter (for Gram-Schmidt orthonormalisation) not specified.
  Using default value basis_acc =  0.1000000E-03.
  Species Sr                  : Using default innermost maximum threshold i_radial=  2 for radial functions.
  Species Sr                  : Default cutoff onset for free atom density etc. : 0.52500000E+01 AA.
  Species Sr                  : Basic radial grid will be enhanced according to radial_multiplier =   2, to contain   115 grid points.
 
  Reading configuration options for species Sn                  .
  | Found nuclear charge :  50.0000
  | Found atomic mass :    118.710000000000      amu
  | Found l_max for Hartree potential  :   6
  | Found cutoff potl. onset [A], width [A], scale factor :    4.00000    2.00000    1.00000
  | Threshold for basis-dependent cutoff potential is   0.100000E-03
  | Found data for basic radial integration grid :    63 points, outermost radius =    7.000 A
  | Found multiplier for basic radial grid :   2
  | Found angular grid specification: user-specified.
  | Specified grid contains     4 separate shells.
  | Check grid settings after all constraints further below.
  | Found free-atom valence shell :  5 s   2.000
  | Found free-atom valence shell :  5 p   2.000
  | Found free-atom valence shell :  4 d  10.000
  | Found free-ion valence shell :  5 s   1.000
  | Found free-ion valence shell :  5 p   1.000
  | Found free-ion valence shell :  4 d  10.000
  | Found hydrogenic basis function :  2 p   1.300
  | Found hydrogenic basis function :  3 d   3.700
  | Found hydrogenic basis function :  4 f   7.400
  | Found ionic basis function :  5 s , default cutoff radius.
  Species Sn                  : Missing cutoff potential type.
  Defaulting to exp(1/x)/(1-x)^2 type cutoff potential.
  Species Sn: No 'logarithmic' tag. Using default grid for free atom:
  | Default logarithmic grid data [bohr] : 0.1000E-03 0.1000E+03 0.1012E+01
  | Will include ionic basis functions of  2.0-fold positive Sn                   ion.
  Species Sn: On-site basis accuracy parameter (for Gram-Schmidt orthonormalisation) not specified.
  Using default value basis_acc =  0.1000000E-03.
  Species Sn                  : Using default innermost maximum threshold i_radial=  2 for radial functions.
  Species Sn                  : Default cutoff onset for free atom density etc. : 0.40000000E+01 AA.
  Species Sn                  : Basic radial grid will be enhanced according to radial_multiplier =   2, to contain   127 grid points.
 
  Reading configuration options for species Ba                  .
  | Found nuclear charge :  56.0000
  | Found atomic mass :    137.327000000000      amu
  | Found l_max for Hartree potential  :   6
  | Found cutoff potl. onset [A], width [A], scale factor :    5.50000    2.00000    1.00000
  | Threshold for basis-dependent cutoff potential is   0.100000E-03
  | Found data for basic radial integration grid :    65 points, outermost radius =    7.000 A
  | Found multiplier for basic radial grid :   2
  | Found angular grid specification: user-specified.
  | Specified grid contains     5 separate shells.
  | Check grid settings after all constraints further below.
  | Found free-atom valence shell :  6 s   2.000
  | Found free-atom valence shell :  5 p   6.000
  | Found free-atom valence shell :  4 d  10.000
  | Found free-ion valence shell :  6 s   1.000
  | Found free-ion valence shell :  5 p   6.000
  | Found free-ion valence shell :  4 d  10.000
  | Found ionic basis function :  5 d , default cutoff radius.
  | Found ionic basis function :  4 f , default cutoff radius.
  | Found hydrogenic basis function :  3 p   2.700
  | Found hydrogenic basis function :  4 s   3.300
  | Found hydrogenic basis function :  4 f   5.800
  Species Ba                  : Missing cutoff potential type.
  Defaulting to exp(1/x)/(1-x)^2 type cutoff potential.
  Species Ba: No 'logarithmic' tag. Using default grid for free atom:
  | Default logarithmic grid data [bohr] : 0.1000E-03 0.1000E+03 0.1012E+01
  | Will include ionic basis functions of  1.0-fold positive Ba                   ion.
  Species Ba: On-site basis accuracy parameter (for Gram-Schmidt orthonormalisation) not specified.
  Using default value basis_acc =  0.1000000E-03.
  Species Ba                  : Using default innermost maximum threshold i_radial=  2 for radial functions.
  Species Ba                  : Default cutoff onset for free atom density etc. : 0.55000000E+01 AA.
  Species Ba                  : Basic radial grid will be enhanced according to radial_multiplier =   2, to contain   131 grid points.
 
  Reading configuration options for species Pb                  .
  | Found nuclear charge :  82.0000
  | Found atomic mass :    207.200000000000      amu
  | Found l_max for Hartree potential  :   6
  | Found cutoff potl. onset [A], width [A], scale factor :    4.00000    2.00000    1.00000
  | Threshold for basis-dependent cutoff potential is   0.100000E-03
  | Found data for basic radial integration grid :    74 points, outermost radius =    7.000 A
  | Found multiplier for basic radial grid :   2
  | Found angular grid specification: user-specified.
  | Specified grid contains     5 separate shells.
  | Check grid settings after all constraints further below.
  | Found free-atom valence shell :  6 s   2.000
  | Found free-atom valence shell :  6 p   2.000
  | Found free-atom valence shell :  5 d  10.000
  | Found free-atom valence shell :  4 f  14.000
  | Found free-ion valence shell :  6 s   1.000
  | Found free-ion valence shell :  6 p   1.000
  | Found free-ion valence shell :  5 d  10.000
  | Found free-ion valence shell :  4 f  14.000
  | Found hydrogenic basis function :  3 p   2.300
  | Found hydrogenic basis function :  4 f   7.600
  | Found hydrogenic basis function :  3 d   3.500
  | Found hydrogenic extended basis function :  5 g   9.800
  | Found hydrogenic basis function :  3 s   3.200
  Species Pb                  : Missing cutoff potential type.
  Defaulting to exp(1/x)/(1-x)^2 type cutoff potential.
  Species Pb: No 'logarithmic' tag. Using default grid for free atom:
  | Default logarithmic grid data [bohr] : 0.1000E-03 0.1000E+03 0.1012E+01
  Species Pb: On-site basis accuracy parameter (for Gram-Schmidt orthonormalisation) not specified.
  Using default value basis_acc =  0.1000000E-03.
  Species Pb                  : Using default innermost maximum threshold i_radial=  2 for radial functions.
  Species Pb                  : Default cutoff onset for free atom density etc. : 0.40000000E+01 AA.
  Species Pb                  : Basic radial grid will be enhanced according to radial_multiplier =   2, to contain   149 grid points.
 
  Finished reading input file 'control.in'.
 
------------------------------------------------------------


------------------------------------------------------------
          Reading geometry description geometry.in.
------------------------------------------------------------
  | The smallest distance between any two atoms is         2.13894752 AA.
  | The first atom of this pair is atom number                      2 .
  | The second atom of this pair is atom number                     3 .
  Input structure read successfully.
  The structure contains        4 atoms,  and a total of        180.000 electrons.

  Input geometry:
  | No unit cell requested.
  | Atomic structure:
  |       Atom                x [A]            y [A]            z [A]
  |    1: Species O            -0.00305689       -0.01106607       -0.00273867
  |    2: Species Pb            2.14341741       -0.13321053       -0.00655996
  |    3: Species O             1.99470926        2.00053003        0.00499865
  |    4: Species Pb           -0.14189131        2.13410695       -0.00714637

 
  Finished reading input file 'geometry.in'.
 

 
  Consistency checks for stacksize environment parameter are next.
 
  | Maximum stacksize for task 0: unlimited
  | Maximum stacksize for task 1: unlimited
  | Current stacksize for task 0: unlimited
  | Current stacksize for task 1: unlimited
 
  Consistency checks for the contents of control.in are next.
 
  MPI_IN_PLACE appears to work with this MPI implementation.
  | Keeping use_mpi_in_place .true. (see manual).
  Target number of points in a grid batch is not set. Defaulting to  100
  Method for grid partitioning is not set. Defaulting to parallel hash+maxmin partitioning.
  Batch size limit is not set. Defaulting to    200
  By default, will store active basis functions for each batch.
  If in need of memory, prune_basis_once .false. can be used to disable this option.
  communication_type for Hartree potential was not specified.
  Defaulting to calc_hartree .
  Pulay mixer: Number of initial linear mixing iterations not set.
  Defaulting to    0 iterations.
  Work space size for distributed Hartree potential not set.
  Defaulting to   0.200000E+03 MB.
  Algorithm-dependent basis array size parameters:
  | n_max_pulay                         :        8
  Presetting      1001 iterations before the initial mixing cycle
  is restarted anyway using the sc_init_iter criterion / keyword.
  Presetting a factor      1.000 between actual scf density residual
  and density convergence criterion sc_accuracy_rho below which sc_init_iter
  takes no effect.
  No maximum number of relaxation steps, defaulting to     1000
  Default initial Hessian is Lindh matrix (thres = 15.00) plus  0.200000E+01 eV/A^2 times unity.
  No maximum energy tolerance for TRM/BFGS moves, defaulting to   0.150000E-02
  Maximum energy tolerance by which TRM/BFGS trajectory may increase over multiple steps:   0.300000E-02
  No harmonic length scale. Defaulting to   0.250000E-01 A.
  No trust radius initializer. Defaulting to   0.200000E+00 A.
  Forces evaluation will include force correction term due to incomplete self-consistency (default).
  Handling of forces: Unphysical translation and rotation will be removed from forces.
  No accuracy limit for integral partition fn. given. Defaulting to  0.1000E-14.
  No threshold value for u(r) in integrations given. Defaulting to  0.1000E-05.
  No accuracy for occupation numbers given. Defaulting to  0.1000E-12.
  No threshold value for occupation numbers given. Defaulting to  0.0000E+00.
  No accuracy for fermi level given. Defaulting to  0.1000E-19.
  Maximum # of iterations to find E_F not set. Defaulting to  200.
  Preferred method for the eigenvalue solver ('KS_method') not specified in 'control.in'.
  Calling BLACS routine to test compilation state
  Since ScaLAPACK support is enabled, defaulting to ELPA (via ELSI).
  Will not use alltoall communication since running on < 1024 CPUs.
  Threshold for basis singularities not set.
  Default threshold for basis singularities:  0.1000E-04
  partition_type (choice of integration weights) for integrals was not specified.
  | Using a version of the partition function of Stratmann and coworkers ('stratmann_sparse').
  | At each grid point, the set of atoms used to build the partition table is smoothly restricted to
  | only those atoms whose free-atom density would be non-zero at that grid point.
  Partitioning for Hartree potential was not defined. Using partition_type for integrals.
  | Adjusted default value of keyword multip_moments_threshold to:       0.10000000E-11
  | This value may affect high angular momentum components of the Hartree potential in periodic systems.
  No q(lm)/r^(l+1) cutoff set for long-range Hartree potential.
  | Using default value of  0.100000E-09 .
  | Verify using the multipole_threshold keyword.
  Defaulting to new monopole extrapolation.
  Density update method: automatic selection selected.
  Geometry relaxation: A file "geometry.in.next_step" is written out by default after each step.
  | This file contains the geometry of the current relaxation step as well as
  | the current Hessian matrix needed to restart the relaxation algorithm.
  | If you do not want part or all of this information, use the keywords
  | "write_restart_geometry" or "hessian_to_restart_geometry" to switch the output off.
  Charge integration errors on the 3D integration grid will be compensated
  by explicit normalization and distribution of residual charges.
  Use the "compensate_multipole_errors" flag to change this behaviour.
  Set 'collect_eigenvectors' to be '.true.' for use_density_matrix .false.
 
  Consistency checks for the contents of geometry.in are next.
 
  Number of empty states per atom not set in control.in - providing a guess from actual geometry.
  | Total number of empty states used during s.c.f. cycle:       24
  If you use a very high smearing, use empty_states (per atom!) in control.in to increase this value.

  Structure-dependent array size parameters: 
  | Maximum number of distinct radial functions  :       74
  | Maximum number of basis functions            :      196
  | Number of Kohn-Sham states (occupied + empty):      114
------------------------------------------------------------

------------------------------------------------------------
          Preparing all fixed parts of the calculation.
------------------------------------------------------------
  Determining machine precision:
    2.225073858507201E-308
  Setting up grids for atomic and cluster calculations.

  Creating wave function, potential, and density for free atoms.
  Runtime choices for atomic solver:
  | atomic solver xc        : PBE
  | compute density gradient: 1
  | compute kinetic density : F

  Species: O

  List of occupied orbitals and eigenvalues:
    n    l              occ      energy [Ha]    energy [eV]
    1    0           2.0000       -18.927378      -515.0401
    2    0           2.0000        -0.880539       -23.9607
    2    1           4.0000        -0.331811        -9.0290


  Species: Sr

  List of occupied orbitals and eigenvalues:
    n    l              occ      energy [Ha]    energy [eV]
    1    0           2.0000      -596.639247    -16235.3799
    2    0           2.0000       -79.550070     -2164.6675
    3    0           2.0000       -12.267580      -333.8178
    4    0           2.0000        -1.499687       -40.8086
    5    0           2.0000        -0.127287        -3.4636
    2    1           6.0000       -70.665947     -1922.9183
    3    1           6.0000        -9.411777      -256.1075
    4    1           6.0000        -0.835396       -22.7323
    3    2          10.0000        -4.702934      -127.9733


  Species: Sn

  List of occupied orbitals and eigenvalues:
    n    l              occ      energy [Ha]    energy [eV]
    1    0           2.0000     -1102.307139    -29995.3034
    2    0           2.0000      -161.937893     -4406.5543
    3    0           2.0000       -31.091377      -846.0394
    4    0           2.0000        -4.915052      -133.7454
    5    0           2.0000        -0.382675       -10.4131
    2    1           6.0000      -145.306634     -3953.9947
    3    1           6.0000       -25.696180      -699.2286
    4    1           6.0000        -3.289033       -89.4991
    5    1           2.0000        -0.130690        -3.5563
    3    2          10.0000       -17.407971      -473.6950
    4    2          10.0000        -0.943847       -25.6834


  Species: Ba

  List of occupied orbitals and eigenvalues:
    n    l              occ      energy [Ha]    energy [eV]
    1    0           2.0000     -1428.757251    -38878.4629
    2    0           2.0000      -218.154463     -5936.2850
    3    0           2.0000       -45.757724     -1245.1310
    4    0           2.0000        -8.959521      -243.8010
    5    0           2.0000        -1.233534       -33.5662
    6    0           2.0000        -0.116029        -3.1573
    2    1           6.0000      -195.501665     -5319.8710
    3    1           6.0000       -38.564654     -1049.3976
    4    1           6.0000        -6.646206      -180.8525
    5    1           6.0000        -0.684763       -18.6334
    3    2          10.0000       -28.144964      -765.8634
    4    2          10.0000        -3.292580       -89.5957


  Species: Pb

  List of occupied orbitals and eigenvalues:
    n    l              occ      energy [Ha]    energy [eV]
    1    0           2.0000     -3583.277747    -97505.9486
    2    0           2.0000      -591.290564    -16089.8349
    3    0           2.0000      -139.817779     -3804.6353
    4    0           2.0000       -31.500228      -857.1648
    5    0           2.0000        -5.285996      -143.8393
    6    0           2.0000        -0.435949       -11.8628
    2    1           6.0000      -505.946867    -13767.5147
    3    1           6.0000      -115.940668     -3154.9061
    4    1           6.0000       -23.734264      -645.8422
    5    1           6.0000        -3.143583       -85.5412
    6    1           2.0000        -0.122377        -3.3300
    3    2          10.0000       -91.725457     -2495.9767
    4    2          10.0000       -14.775440      -402.0602
    5    2          10.0000        -0.771604       -20.9964
    4    3          14.0000        -4.888066      -133.0110


  Adding cutoff potential to free-atom effective potential.
  Creating fixed part of basis set: Ionic, confined, hydrogenic.
 
  O                    hydrogenic:
 
  List of hydrogenic basis orbitals: 
    n    l      effective z      eigenvalue [eV]  inner max. [A]     outer max. [A]     outer radius [A]   
    2    1         1.800000       -11.0118           1.178562           1.178562           5.432602
    3    2         7.600000       -87.3182           0.624125           0.624125           3.541477
    3    0         6.400000       -61.9209           0.061167           1.081902           4.306578
    4    3        11.600000      -114.4238           0.731631           0.731631           3.585037
 
  List of extra hydrogenic orbitals for auxiliary basis: 
    n    l      effective z      eigenvalue [eV]  inner max. [A]     outer max. [A]     outer radius [A]   
    5    4        17.600000      -168.5799           0.749740           0.749740           3.372465
 
 
  Sr                   ion:

  List of free ionic orbitals and eigenvalues:
    n    l      energy [Ha]    energy [eV]
    1    0      -596.882744    -16242.0059
    2    0       -79.789776     -2171.1903
    3    0       -12.506389      -340.3162
    4    0        -1.735484       -47.2249
    5    0        -0.306751        -8.3471
    2    1       -70.905624     -1929.4402
    3    1        -9.650538      -262.6045
    4    1        -1.069688       -29.1077
    3    2        -4.941615      -134.4682


  List of ionic basis orbitals and eigenvalues:
    n    l      energy [Ha]    energy [eV]    outer radius [A]
    4    2        -0.249595        -6.7918       6.650362
    5    1        -0.198263        -5.3950       6.650362
    5    0        -0.306659        -8.3446       6.650362

 
  Sr                   hydrogenic:
 
  List of hydrogenic basis orbitals: 
    n    l      effective z      eigenvalue [eV]  inner max. [A]     outer max. [A]     outer radius [A]   
    4    3         5.600000       -26.6668           1.515050           1.515050           6.030750
    5    4         7.400000       -29.8016           1.797862           1.797862           6.332983
 
 
  Sn                   ion:

  List of free ionic orbitals and eigenvalues:
    n    l      energy [Ha]    energy [eV]
    1    0     -1103.038848    -30015.2142
    2    0      -162.645837     -4425.8184
    3    0       -31.796409      -865.2243
    4    0        -5.617563      -152.8617
    5    0        -0.990726       -26.9590
    2    1      -146.014658     -3973.2610
    3    1       -26.401112      -718.4108
    4    1        -3.991102      -108.6034
    5    1        -0.680547       -18.5186
    3    2       -18.112528      -492.8670
    4    2        -1.640216       -44.6326


  List of ionic basis orbitals and eigenvalues:
    n    l      energy [Ha]    energy [eV]    outer radius [A]
    5    0        -0.990718       -26.9588       4.813067

 
  Sn                   hydrogenic:
 
  List of hydrogenic basis orbitals: 
    n    l      effective z      eigenvalue [eV]  inner max. [A]     outer max. [A]     outer radius [A]   
    2    1         1.300000        -5.6494           1.601733           1.601733           5.438941
    3    2         3.700000       -20.6934           1.285357           1.285357           5.372855
    4    3         7.400000       -46.5653           1.137447           1.137447           4.872268
 
 
  Ba                   ion:

  List of free ionic orbitals and eigenvalues:
    n    l      energy [Ha]    energy [eV]
    1    0     -1428.980456    -38884.5366
    2    0      -218.370478     -5942.1630
    3    0       -45.972614     -1250.9785
    4    0        -9.173714      -249.6295
    5    0        -1.445296       -39.3285
    6    0        -0.278663        -7.5828
    2    1      -195.717553     -5325.7456
    3    1       -38.779502     -1055.2439
    4    1        -6.860306      -186.6784
    5    1        -0.894905       -24.3516
    3    2       -28.359770      -771.7086
    4    2        -3.506466       -95.4158


  List of ionic basis orbitals and eigenvalues:
    n    l      energy [Ha]    energy [eV]    outer radius [A]
    5    2        -0.260020        -7.0755       6.838410
    4    3        -0.142728        -3.8838       6.838410

 
  Ba                   hydrogenic:
 
  List of hydrogenic basis orbitals: 
    n    l      effective z      eigenvalue [eV]  inner max. [A]     outer max. [A]     outer radius [A]   
    3    1         2.700000       -11.0133           0.585865           2.360755           6.922523
    4    0         3.300000        -8.9958           0.118110           3.849645           7.007670
    4    3         5.800000       -28.6057           1.465516           1.465516           5.833578
 
 
  Pb                   hydrogenic:
 
  List of hydrogenic basis orbitals: 
    n    l      effective z      eigenvalue [eV]  inner max. [A]     outer max. [A]     outer radius [A]   
    3    1         2.300000        -7.5446           0.685138           2.629026           5.474563
    4    3         7.600000       -49.1164           1.117244           1.117244           4.785726
    3    2         3.500000       -18.5140           1.358613           1.358613           5.408044
    3    0         3.200000       -15.4178           0.122229           2.161957           5.474563
 
  List of extra hydrogenic orbitals for auxiliary basis: 
    n    l      effective z      eigenvalue [eV]  inner max. [A]     outer max. [A]     outer radius [A]   
    5    4         9.800000       -52.2674           1.342105           1.342105           5.149953
 
  Creating atomic-like basis functions for current effective potential.

  Species O                   :

  List of atomic basis orbitals and eigenvalues:
    n    l      energy [Ha]    energy [eV]    outer radius [A]
    1    0       -18.927378      -515.0401       1.415765
    2    0        -0.880539       -23.9607       5.048385
    2    1        -0.331811        -9.0290       5.301386


  Species Sr                  :

  List of atomic basis orbitals and eigenvalues:
    n    l      energy [Ha]    energy [eV]    outer radius [A]
    1    0      -596.639247    -16235.3799       0.273611
    2    0       -79.550070     -2164.6675       0.773426
    3    0       -12.267580      -333.8178       1.934692
    4    0        -1.499687       -40.8086       5.271931
    5    0        -0.127287        -3.4636       6.650362
    2    1       -70.665947     -1922.9183       0.792569
    3    1        -9.411777      -256.1075       2.133466
    4    1        -0.835396       -22.7323       6.104929
    3    2        -4.702934      -127.9733       2.791830


  Species Sn                  :

  List of atomic basis orbitals and eigenvalues:
    n    l      energy [Ha]    energy [eV]    outer radius [A]
    1    0     -1102.307139    -29995.3034       0.205417
    2    0      -161.937893     -4406.5543       0.552950
    3    0       -31.091377      -846.0394       1.254311
    4    0        -4.915052      -133.7454       2.987868
    5    0        -0.382675       -10.4131       5.372855
    2    1      -145.306634     -3953.9947       0.566636
    3    1       -25.696180      -699.2286       1.349773
    4    1        -3.289033       -89.4991       3.545609
    5    1        -0.130690        -3.5563       5.438941
    3    2       -17.407971      -473.6950       1.544053
    4    2        -0.943847       -25.6834       4.992863


  Species Ba                  :

  List of atomic basis orbitals and eigenvalues:
    n    l      energy [Ha]    energy [eV]    outer radius [A]
    1    0     -1428.757251    -38878.4629       0.181180
    2    0      -218.154463     -5936.2850       0.481781
    3    0       -45.757724     -1245.1310       1.053516
    4    0        -8.959521      -243.8010       2.303735
    5    0        -1.233534       -33.5662       5.833578
    6    0        -0.116029        -3.1573       6.922523
    2    1      -195.501665     -5319.8710       0.493705
    3    1       -38.564654     -1049.3976       1.119920
    4    1        -6.646206      -180.8525       2.603304
    5    1        -0.684763       -18.6334       6.432931
    3    2       -28.144964      -765.8634       1.250174
    4    2        -3.292580       -89.5957       3.490975


  Species Pb                  :

  List of atomic basis orbitals and eigenvalues:
    n    l      energy [Ha]    energy [eV]    outer radius [A]
    1    0     -3583.277747    -97505.9486       0.114982
    2    0      -591.290564    -16089.8349       0.298366
    3    0      -139.817779     -3804.6353       0.621304
    4    0       -31.500228      -857.1648       1.278055
    5    0        -5.285996      -143.8393       2.934797
    6    0        -0.435949       -11.8628       5.342333
    2    1      -505.946867    -13767.5147       0.317173
    3    1      -115.940668     -3154.9061       0.668590
    4    1       -23.734264      -645.8422       1.426700
    5    1        -3.143583       -85.5412       3.657164
    6    1        -0.122377        -3.3300       5.474563
    3    2       -91.725457     -2495.9767       0.719474
    4    2       -14.775440      -402.0602       1.713844
    5    2        -0.771604       -20.9964       5.087378
    4    3        -4.888066      -133.0110       2.597082

  Assembling full basis from fixed parts.
  | Species O :   atomic orbital   1 s accepted.
  | Species O :    hydro orbital   3 s accepted.
  | Species O :   atomic orbital   2 s accepted.
  | Species O :   atomic orbital   2 p accepted.
  | Species O :    hydro orbital   2 p accepted.
  | Species O :    hydro orbital   3 d accepted.
  | Species O :    hydro orbital   4 f accepted.
  | Species Sr :   atomic orbital   1 s accepted.
  | Species Sr :   atomic orbital   2 s accepted.
  | Species Sr :   atomic orbital   3 s accepted.
  | Species Sr :   atomic orbital   4 s accepted.
  | Species Sr :   atomic orbital   5 s accepted.
  | Species Sr :    ionic orbital   5 s accepted.
  | Species Sr :   atomic orbital   2 p accepted.
  | Species Sr :   atomic orbital   3 p accepted.
  | Species Sr :   atomic orbital   4 p accepted.
  | Species Sr :    ionic orbital   5 p accepted.
  | Species Sr :   atomic orbital   3 d accepted.
  | Species Sr :    ionic orbital   4 d accepted.
  | Species Sr :    hydro orbital   4 f accepted.
  | Species Sr :    hydro orbital   5 g accepted.
  | Species Sn :   atomic orbital   1 s accepted.
  | Species Sn :   atomic orbital   2 s accepted.
  | Species Sn :   atomic orbital   3 s accepted.
  | Species Sn :   atomic orbital   4 s accepted.
  | Species Sn :    ionic orbital   5 s accepted.
  | Species Sn :   atomic orbital   5 s accepted.
  | Species Sn :   atomic orbital   2 p accepted.
  | Species Sn :   atomic orbital   3 p accepted.
  | Species Sn :   atomic orbital   4 p accepted.
  | Species Sn :   atomic orbital   5 p accepted.
  | Species Sn :    hydro orbital   2 p accepted.
  | Species Sn :   atomic orbital   3 d accepted.
  | Species Sn :   atomic orbital   4 d accepted.
  | Species Sn :    hydro orbital   3 d accepted.
  | Species Sn :    hydro orbital   4 f accepted.
  | Species Ba :   atomic orbital   1 s accepted.
  | Species Ba :   atomic orbital   2 s accepted.
  | Species Ba :   atomic orbital   3 s accepted.
  | Species Ba :   atomic orbital   4 s accepted.
  | Species Ba :   atomic orbital   5 s accepted.
  | Species Ba :   atomic orbital   6 s accepted.
  | Species Ba :    hydro orbital   4 s accepted.
  | Species Ba :   atomic orbital   2 p accepted.
  | Species Ba :   atomic orbital   3 p accepted.
  | Species Ba :   atomic orbital   4 p accepted.
  | Species Ba :   atomic orbital   5 p accepted.
  | Species Ba :    hydro orbital   3 p accepted.
  | Species Ba :   atomic orbital   3 d accepted.
  | Species Ba :   atomic orbital   4 d accepted.
  | Species Ba :    ionic orbital   5 d accepted.
  | Species Ba :    hydro orbital   4 f accepted.
  | Species Ba :    ionic orbital   4 f accepted.
  | Species Pb :   atomic orbital   1 s accepted.
  | Species Pb :   atomic orbital   2 s accepted.
  | Species Pb :   atomic orbital   3 s accepted.
  | Species Pb :   atomic orbital   4 s accepted.
  | Species Pb :   atomic orbital   5 s accepted.
  | Species Pb :   atomic orbital   6 s accepted.
  | Species Pb :    hydro orbital   3 s accepted.
  | Species Pb :   atomic orbital   2 p accepted.
  | Species Pb :   atomic orbital   3 p accepted.
  | Species Pb :   atomic orbital   4 p accepted.
  | Species Pb :   atomic orbital   5 p accepted.
  | Species Pb :   atomic orbital   6 p accepted.
  | Species Pb :    hydro orbital   3 p accepted.
  | Species Pb :   atomic orbital   3 d accepted.
  | Species Pb :   atomic orbital   4 d accepted.
  | Species Pb :   atomic orbital   5 d accepted.
  | Species Pb :    hydro orbital   3 d accepted.
  | Species Pb :   atomic orbital   4 f accepted.
  | Species Pb :    hydro orbital   4 f accepted.
 
  Basis size parameters after reduction:
  | Total number of radial functions:       72
  | Total number of basis functions :      160
 
  Assembling extended basis for auxiliary basis.
  | Species O :   atomic orbital   1 s accepted.
  | Species O :    hydro orbital   3 s accepted.
  | Species O :   atomic orbital   2 s accepted.
  | Species O :   atomic orbital   2 p accepted.
  | Species O :    hydro orbital   2 p accepted.
  | Species O :    hydro orbital   3 d accepted.
  | Species O :    hydro orbital   4 f accepted.
  | Species O :    hydro orbital   5 g accepted.
  | Species Sr :   atomic orbital   1 s accepted.
  | Species Sr :   atomic orbital   2 s accepted.
  | Species Sr :   atomic orbital   3 s accepted.
  | Species Sr :   atomic orbital   4 s accepted.
  | Species Sr :   atomic orbital   5 s accepted.
  | Species Sr :    ionic orbital   5 s accepted.
  | Species Sr :   atomic orbital   2 p accepted.
  | Species Sr :   atomic orbital   3 p accepted.
  | Species Sr :   atomic orbital   4 p accepted.
  | Species Sr :    ionic orbital   5 p accepted.
  | Species Sr :   atomic orbital   3 d accepted.
  | Species Sr :    ionic orbital   4 d accepted.
  | Species Sr :    hydro orbital   4 f accepted.
  | Species Sr :    hydro orbital   5 g accepted.
  | Species Sn :   atomic orbital   1 s accepted.
  | Species Sn :   atomic orbital   2 s accepted.
  | Species Sn :   atomic orbital   3 s accepted.
  | Species Sn :   atomic orbital   4 s accepted.
  | Species Sn :    ionic orbital   5 s accepted.
  | Species Sn :   atomic orbital   5 s accepted.
  | Species Sn :   atomic orbital   2 p accepted.
  | Species Sn :   atomic orbital   3 p accepted.
  | Species Sn :   atomic orbital   4 p accepted.
  | Species Sn :   atomic orbital   5 p accepted.
  | Species Sn :    hydro orbital   2 p accepted.
  | Species Sn :   atomic orbital   3 d accepted.
  | Species Sn :   atomic orbital   4 d accepted.
  | Species Sn :    hydro orbital   3 d accepted.
  | Species Sn :    hydro orbital   4 f accepted.
  | Species Ba :   atomic orbital   1 s accepted.
  | Species Ba :   atomic orbital   2 s accepted.
  | Species Ba :   atomic orbital   3 s accepted.
  | Species Ba :   atomic orbital   4 s accepted.
  | Species Ba :   atomic orbital   5 s accepted.
  | Species Ba :   atomic orbital   6 s accepted.
  | Species Ba :    hydro orbital   4 s accepted.
  | Species Ba :   atomic orbital   2 p accepted.
  | Species Ba :   atomic orbital   3 p accepted.
  | Species Ba :   atomic orbital   4 p accepted.
  | Species Ba :   atomic orbital   5 p accepted.
  | Species Ba :    hydro orbital   3 p accepted.
  | Species Ba :   atomic orbital   3 d accepted.
  | Species Ba :   atomic orbital   4 d accepted.
  | Species Ba :    ionic orbital   5 d accepted.
  | Species Ba :    hydro orbital   4 f accepted.
  | Species Ba :    ionic orbital   4 f accepted.
  | Species Pb :   atomic orbital   1 s accepted.
  | Species Pb :   atomic orbital   2 s accepted.
  | Species Pb :   atomic orbital   3 s accepted.
  | Species Pb :   atomic orbital   4 s accepted.
  | Species Pb :   atomic orbital   5 s accepted.
  | Species Pb :   atomic orbital   6 s accepted.
  | Species Pb :    hydro orbital   3 s accepted.
  | Species Pb :   atomic orbital   2 p accepted.
  | Species Pb :   atomic orbital   3 p accepted.
  | Species Pb :   atomic orbital   4 p accepted.
  | Species Pb :   atomic orbital   5 p accepted.
  | Species Pb :   atomic orbital   6 p accepted.
  | Species Pb :    hydro orbital   3 p accepted.
  | Species Pb :   atomic orbital   3 d accepted.
  | Species Pb :   atomic orbital   4 d accepted.
  | Species Pb :   atomic orbital   5 d accepted.
  | Species Pb :    hydro orbital   3 d accepted.
  | Species Pb :   atomic orbital   4 f accepted.
  | Species Pb :    hydro orbital   4 f accepted.
  | Species Pb :    hydro orbital   5 g accepted.
  Per-task memory consumption for arrays in subroutine allocate_ext:
  |          28.255260MB.
 
  Extended basis size parameters after reduction:
  | Total number of radial functions:       74
  | Total number of basis functions :      196
 
  Testing on-site integration grid accuracy.
  |  Species  Function  <phi|h_atom|phi> (log., in eV)  <phi|h_atom|phi> (rad., in eV)
           1        1               -515.0401491148               -515.0401445497
           1        2                 15.1629302771                 15.1629233102
           1        3                -21.6127103295                -21.6127145449
           1        4                 -9.0290718243                 -9.0290720379
           1        5                  7.9075681532                  7.9075643182
           1        6                 45.8331828879                 45.8331828941
           1        7                 85.4133898762                 85.4133899074
           2        8             -16235.3799475466             -16235.3788972965
           2        9              -2164.6675402086              -2164.6675213849
           2       10               -333.8178477051               -333.8178455244
           2       11                -40.8085673869                -40.8085669513
           2       12                 -3.4665196074                 -3.4652533560
           2       13                  2.6166844197                  2.6337260634
           2       14              -1922.9182613995              -1922.9182591156
           2       15               -256.1074876567               -256.1074864975
           2       16                -22.7322756375                -22.7322753901
           2       17                 -0.9803066990                 -0.9778555694
           2       18               -127.9733322111               -127.9733318935
           2       19                 -1.0398785788                 -1.0397542645
           2       20                 11.4641227511                 11.4641156358
           2       21                 19.6220688154                 19.6220461579
           3       22             -29995.3033975009             -29995.3004492284
           3       23              -4406.5542784869              -4406.5542271769
           3       24               -846.0394262085               -846.0394208312
           3       25               -133.7453580260               -133.7453562075
           3       26                -10.1675699782                -10.1675698254
           3       27                  4.4196132321                  4.4196556987
           3       28              -3953.9946968922              -3953.9946941922
           3       29               -699.2286366960               -699.2286342391
           3       30                -89.4991470217                -89.4991458194
           3       31                 -3.5627674944                 -3.5627579666
           3       32                  4.5791138257                  4.5791993190
           3       33               -473.6949956588               -473.6949949228
           3       34                -25.6833752121                -25.6833747641
           3       35                  7.1177774725                  7.1177804874
           3       36                 19.0643826028                 19.0643828738
           4       37             -38878.4629208326             -38878.4579048655
           4       38              -5936.2849749926              -5936.2848796683
           4       39              -1245.1310300809              -1245.1310226760
           4       40               -243.8009754624               -243.8009731807
           4       41                -33.5661691746                -33.5661686377
           4       42                 -3.1607157793                 -3.1613079757
           4       43                  2.0674123846                  2.0592040003
           4       44              -5319.8709796836              -5319.8709744780
           4       45              -1049.3976218640              -1049.3976194148
           4       46               -180.8524721608               -180.8524705719
           4       47                -18.6333571780                -18.6333568550
           4       48                 -0.6159021843                 -0.6162209533
           4       49               -765.8634415751               -765.8634408497
           4       50                -89.5956565800                -89.5956557177
           4       51                 -1.8406918615                 -1.8407093787
           4       52                  8.1959262024                  8.1959313406
           4       53                  8.6518060491                  8.6517418437
           5       54             -97505.9485680391             -97505.9276495936
           5       55             -16089.8348906439             -16089.8344607805
           5       56              -3804.6353443565              -3804.6353101081
           5       57               -857.1648256059               -857.1648151968
           5       58               -143.8392586886               -143.8392555171
           5       59                -11.8628859669                -11.8628857106
           5       60                  2.9645702034                  2.9644500427
           5       61             -13767.5147291405             -13767.5147191794
           5       62              -3154.9061047282              -3154.9060966840
           5       63               -645.8421711069               -645.8421650593
           5       64                -85.5412411309                -85.5412393489
           5       65                 -3.3380161838                 -3.3380215577
           5       66                  5.2821809386                  5.2821452458
           5       67              -2495.9766688123              -2495.9766658797
           5       68               -402.0601896018               -402.0601861509
           5       69                -20.9964082951                -20.9964076148
           5       70                  7.0343569075                  7.0343541688
           5       71               -133.0110431389               -133.0110421738
           5       72                 17.8397228945                 17.8397229786

  Preparing densities etc. for the partition functions (integrals / Hartree potential).

  Preparations completed.
  max(cpu_time)          :      0.852 s.
  Wall clock time (cpu1) :      1.209 s.
------------------------------------------------------------

  Initializing index lists of integration centers etc. from given atomic structure:
  | Number of centers in hartree potential         :         4
  | Number of centers in hartree multipole         :         4
  | Number of centers in electron density summation:         4
  | Number of centers in basis integrals           :         4
  | Number of centers in integrals                 :         4
  | Number of centers in hamiltonian               :         4

------------------------------------------------------------
          Begin self-consistency loop: Initialization.

          Date     :  20230426, Time     :  001835.476
------------------------------------------------------------

  Initializing relaxation algorithms.
  Finished initialization of distributed Hessian storage.
  | Global dimension:        12
  | BLACS block size:         6
  | Number of workers:        2

  * Using 2 tasks for Scalapack Eigenvalue solver.
  Detailed listing of tasks and assigned k-points:
  (for non-periodic systems, the "k-point" denotes an internal label only)
   Task     0 k-point     1 on node-c12k-004
   Task     1 k-point     1 on node-c12k-004
  Tasks:     2 split into      2 X      1 BLACS grid
  Calculating block size based on n_basis =          160  max_nprow =            2  max_npcol =            1
  ScaLAPACK block size set to:           16
  Allocating        0.098 MB for ovlp
  Allocating        0.098 MB for ham
  Allocating        0.098 MB for eigenvec
  Required Scalapack workspace - INTEGER:            1  REAL:             1
  Partitioning the integration grid into batches with parallel hashing+maxmin method.
  | Number of batches:     1878
  | Maximal batch size:     141
  | Minimal batch size:      67
  | Average batch size:      75.693
  | Standard deviation of batch sizes:      19.975

  Integration load balanced across     2 MPI tasks.
  Work distribution over tasks is as follows:
  Task     0 has      71041 integration points.
  Task     1 has      71111 integration points.
  Initializing partition tables, free-atom densities, potentials, etc. across the integration grid (initialize_grid_storage).
  | initialize_grid_storage: Actual outermost partition radius vs. multipole_radius_free
  | (-- VB: in principle, multipole_radius_free should be larger, hence this output)
  | Species        1: Confinement radius =              6.000000000000000 AA, multipole_radius_free =              6.064445521808699 AA.
  | Species        1: outer_partition_radius set to              6.064445521808699 AA .
  | Species        2: Confinement radius =              7.250000000000000 AA, multipole_radius_free =              7.333634274623765 AA.
  | Species        2: outer_partition_radius set to              7.333634274623765 AA .
  | Species        3: Confinement radius =              6.000000000000000 AA, multipole_radius_free =              6.071521564059752 AA.
  | Species        3: outer_partition_radius set to              6.071521564059752 AA .
  | Species        4: Confinement radius =              7.500000000000000 AA, multipole_radius_free =              7.541002451619759 AA.
  | Species        4: outer_partition_radius set to              7.541002451619759 AA .
  | Species        5: Confinement radius =              6.000000000000000 AA, multipole_radius_free =              6.037031146364955 AA.
  | Species        5: outer_partition_radius set to              6.037031146364955 AA .
  | The sparse table of interatomic distances needs          0.16 kbyte instead of         0.13 kbyte of memory.
  | Using the partition_type stratmann_smoother will reduce your memory usage.
  | Net number of integration points:   142152
  | of which are non-zero points    :   134949
  Renormalizing the initial density to the exact electron count on the 3D integration grid.
  | Initial density: Formal number of electrons (from input files) :     180.0000000000
  | Integrated number of electrons on 3D grid     :     180.0000000320
  | Charge integration error                      :       0.0000000320
  | Normalization factor for density and gradient :       0.9999999998
  Renormalizing the free-atom superposition density to the exact electron count on the 3D integration grid.
  | Formal number of electrons (from input files) :     180.0000000000
  | Integrated number of electrons on 3D grid     :     180.0000000320
  | Charge integration error                      :       0.0000000320
  | Normalization factor for density and gradient :       0.9999999998
  Obtaining max. number of non-zero basis functions in each batch (get_n_compute_maxes).
  | Maximal number of non-zero basis functions:      135 in task     0
  | Maximal number of non-zero basis functions:      136 in task     1
  Selecting the method for density update.
  Electron density will be updated via Kohn Sham orbitals; 
  first geometry step: forces will be updated via orbitals;
  second geometry step: forces will be updated via density matrix;
  finally, the fastest method will be selected
  Scalapack and automatic selection of force update requested:
  Switching to packed matrix format "index" by default.
  Hamiltonian matrix size:
  | Size of matrix non-packed:                 12880
  | Size of matrix packed:           12392
  Allocating        0.139 MB for KS_eigenvector
  Integrating Hamiltonian matrix: batch-based integration.
  Time summed over all CPUs for integration: real work        1.616 s, elapsed        1.641 s
  Integrating overlap matrix.
  Time summed over all CPUs for integration: real work        0.593 s, elapsed        0.608 s
  Decreasing sparse matrix size:
  | Tolerance:  0.1000E-12
  Hamiltonian matrix
  | Array has    12200 nonzero elements out of    12392 elements
  | Sparsity factor is 0.015
  Overlap matrix
  | Array has    11542 nonzero elements out of    12392 elements
  | Sparsity factor is 0.069
  New size of hamiltonian matrix:       12205
  Deallocating overlap matrix.

  Updating Kohn-Sham eigenvalues and eigenvectors using ELSI and the ELPA eigensolver.
  Overlap matrix is not singular
  | Lowest and highest eigenvalues :  0.9563E-02,  0.3351E+01
  Finished singularity check of overlap matrix
  | Time :     0.003 s
  Starting ELPA eigensolver
  Finished Cholesky decomposition
  | Time :     0.001 s
  Finished transformation to standard eigenproblem
  | Time :     0.001 s
  Finished solving standard eigenproblem
  | Time :     0.013 s
  Finished back-transformation of eigenvectors
  | Time :     0.000 s

  Obtaining occupation numbers and electronic chemical potential using ELSI.
  | Note that, for insulating systems, the printed 'chemical potential' value is not uniquely defined.
  | It can be anywhere in the energy gap, as long as it correctly separates occupied and unoccupied states.
  | In systems with a gap, the physically relevant chemical potential is the VBM or HOMO.

  | Chemical potential (Fermi level):    -4.68105053 eV
  Writing Kohn-Sham eigenvalues.

  State    Occupation    Eigenvalue [Ha]    Eigenvalue [eV]
      1       2.00000       -3583.283300       -97506.09966
      2       2.00000       -3583.283296       -97506.09954
      3       2.00000        -591.293261       -16089.90827
      4       2.00000        -591.293256       -16089.90815
      5       2.00000        -505.949187       -13767.57787
      6       2.00000        -505.949184       -13767.57778
      7       2.00000        -505.949183       -13767.57776
      8       2.00000        -505.949181       -13767.57771
      9       2.00000        -505.949179       -13767.57766
     10       2.00000        -505.949177       -13767.57759
     11       2.00000        -139.820218        -3804.70171
     12       2.00000        -139.820213        -3804.70159
     13       2.00000        -115.943051        -3154.97095
     14       2.00000        -115.943047        -3154.97083
     15       2.00000        -115.943023        -3154.97018
     16       2.00000        -115.943019        -3154.97006
     17       2.00000        -115.943001        -3154.96959
     18       2.00000        -115.942997        -3154.96947
     19       2.00000         -91.727823        -2496.04106
     20       2.00000         -91.727820        -2496.04098
     21       2.00000         -91.727818        -2496.04094
     22       2.00000         -91.727816        -2496.04086
     23       2.00000         -91.727807        -2496.04063
     24       2.00000         -91.727803        -2496.04051
     25       2.00000         -91.727790        -2496.04017
     26       2.00000         -91.727789        -2496.04013
     27       2.00000         -91.727786        -2496.04005
     28       2.00000         -91.727784        -2496.04001
     29       2.00000         -31.502775         -857.23413
     30       2.00000         -31.502771         -857.23400
     31       2.00000         -23.736968         -645.91576
     32       2.00000         -23.736963         -645.91563
     33       2.00000         -23.736813         -645.91154
     34       2.00000         -23.736808         -645.91140
     35       2.00000         -23.736689         -645.90817
     36       2.00000         -23.736684         -645.90804
     37       2.00000         -18.975957         -516.36206
     38       2.00000         -18.974639         -516.32620
     39       2.00000         -14.778161         -402.13423
     40       2.00000         -14.778156         -402.13408
     41       2.00000         -14.778152         -402.13396
     42       2.00000         -14.778146         -402.13382
     43       2.00000         -14.778037         -402.13086
     44       2.00000         -14.778033         -402.13073
     45       2.00000         -14.777915         -402.12752
     46       2.00000         -14.777910         -402.12739
     47       2.00000         -14.777907         -402.12730
     48       2.00000         -14.777902         -402.12717
     49       2.00000          -5.289592         -143.93713
     50       2.00000          -5.289585         -143.93692
     51       2.00000          -4.890878         -133.08757
     52       2.00000          -4.890877         -133.08753
     53       2.00000          -4.890873         -133.08742
     54       2.00000          -4.890872         -133.08739
     55       2.00000          -4.890750         -133.08407
     56       2.00000          -4.890745         -133.08393
     57       2.00000          -4.890713         -133.08308
     58       2.00000          -4.890708         -133.08294
     59       2.00000          -4.890682         -133.08223
     60       2.00000          -4.890677         -133.08210
     61       2.00000          -4.890546         -133.07854
     62       2.00000          -4.890545         -133.07850
     63       2.00000          -4.890542         -133.07841
     64       2.00000          -4.890540         -133.07837
     65       2.00000          -3.148961          -85.68758
     66       2.00000          -3.148819          -85.68373
     67       2.00000          -3.147776          -85.65535
     68       2.00000          -3.147760          -85.65490
     69       2.00000          -3.146662          -85.62503
     70       2.00000          -3.146652          -85.62475
     71       2.00000          -0.982269          -26.72889
     72       2.00000          -0.973763          -26.49743
     73       2.00000          -0.790028          -21.49775
     74       2.00000          -0.786247          -21.39488
     75       2.00000          -0.781273          -21.25952
     76       2.00000          -0.780052          -21.22629
     77       2.00000          -0.777497          -21.15677
     78       2.00000          -0.776298          -21.12415
     79       2.00000          -0.776206          -21.12163
     80       2.00000          -0.775686          -21.10749
     81       2.00000          -0.771055          -20.98148
     82       2.00000          -0.761513          -20.72182
     83       2.00000          -0.513015          -13.95986
     84       2.00000          -0.492309          -13.39642
     85       2.00000          -0.418404          -11.38535
     86       2.00000          -0.402069          -10.94085
     87       2.00000          -0.387615          -10.54753
     88       2.00000          -0.385518          -10.49047
     89       2.00000          -0.348490           -9.48290
     90       2.00000          -0.312610           -8.50655
     91       0.00000          -0.120610           -3.28195
     92       0.00000          -0.109082           -2.96826
     93       0.00000          -0.087631           -2.38455
     94       0.00000          -0.060666           -1.65080
     95       0.00000          -0.044071           -1.19925
     96       0.00000          -0.017416           -0.47392
     97       0.00000           0.095017            2.58555
     98       0.00000           0.171124            4.65653
     99       0.00000           0.176862            4.81265
    100       0.00000           0.177831            4.83903
    101       0.00000           0.192919            5.24959
    102       0.00000           0.200448            5.45447
    103       0.00000           0.210553            5.72945
    104       0.00000           0.216176            5.88245
    105       0.00000           0.219316            5.96788
    106       0.00000           0.222913            6.06578
    107       0.00000           0.223016            6.06857
    108       0.00000           0.272529            7.41589
[...]
  | Change of unmixed KS density  :  0.1180E-06
  | Change of sum of eigenvalues  :  0.1077E-03 eV
  | Change of total energy        :  0.0000E+00 eV
  | Change of forces              :  0.1670E+01 eV/A

  Writing Kohn-Sham eigenvalues.

  State    Occupation    Eigenvalue [Ha]    Eigenvalue [eV]
      1       2.00000       -3583.266836       -97505.65163
      2       2.00000       -3583.266835       -97505.65161
      3       2.00000        -591.276628       -16089.45567
      4       2.00000        -591.276627       -16089.45564
      5       2.00000        -505.932953       -13767.13613
      6       2.00000        -505.932953       -13767.13610
      7       2.00000        -505.932456       -13767.12258
      8       2.00000        -505.932455       -13767.12255
      9       2.00000        -505.932168       -13767.11474
     10       2.00000        -505.932167       -13767.11472
     11       2.00000        -139.804701        -3804.27947
     12       2.00000        -139.804700        -3804.27944
     13       2.00000        -115.928494        -3154.57483
     14       2.00000        -115.928493        -3154.57481
     15       2.00000        -115.927456        -3154.54657
     16       2.00000        -115.927455        -3154.54654
     17       2.00000        -115.926631        -3154.52413
     18       2.00000        -115.926630        -3154.52411
     19       2.00000         -91.712831        -2495.63311
     20       2.00000         -91.712830        -2495.63308
     21       2.00000         -91.712713        -2495.62989
     22       2.00000         -91.712712        -2495.62986
     23       2.00000         -91.712167        -2495.61504
     24       2.00000         -91.712166        -2495.61501
     25       2.00000         -91.711460        -2495.59579
     26       2.00000         -91.711459        -2495.59576
     27       2.00000         -91.711412        -2495.59449
     28       2.00000         -91.711411        -2495.59446
     29       2.00000         -31.488755         -856.85263
     30       2.00000         -31.488754         -856.85260
     31       2.00000         -23.725347         -645.59954
     32       2.00000         -23.725346         -645.59952
     33       2.00000         -23.722590         -645.52453
     34       2.00000         -23.722589         -645.52450
     35       2.00000         -23.720894         -645.47836
     36       2.00000         -23.720893         -645.47833
     37       2.00000         -18.725199         -509.53858
     38       2.00000         -18.725197         -509.53853
     39       2.00000         -14.766205         -401.80887
     40       2.00000         -14.766204         -401.80885
     41       2.00000         -14.765800         -401.79785
     42       2.00000         -14.765799         -401.79782
     43       2.00000         -14.764535         -401.76345
     44       2.00000         -14.764534         -401.76342
     45       2.00000         -14.762357         -401.70417
     46       2.00000         -14.762356         -401.70414
     47       2.00000         -14.762335         -401.70359
     48       2.00000         -14.762334         -401.70356
     49       2.00000          -5.278042         -143.62284
     50       2.00000          -5.278040         -143.62278
     51       2.00000          -4.879163         -132.76878
     52       2.00000          -4.879162         -132.76876
     53       2.00000          -4.879068         -132.76618
     54       2.00000          -4.879067         -132.76616
     55       2.00000          -4.877849         -132.73303
     56       2.00000          -4.877848         -132.73301
     57       2.00000          -4.877018         -132.71041
     58       2.00000          -4.877017         -132.71039
     59       2.00000          -4.876814         -132.70485
     60       2.00000          -4.876813         -132.70483
     61       2.00000          -4.874744         -132.64853
     62       2.00000          -4.874743         -132.64850
     63       2.00000          -4.874743         -132.64850
     64       2.00000          -4.874742         -132.64847
     65       2.00000          -3.143604          -85.54182
     66       2.00000          -3.143596          -85.54161
     67       2.00000          -3.135060          -85.30932
     68       2.00000          -3.135048          -85.30901
     69       2.00000          -3.131614          -85.21555
     70       2.00000          -3.131478          -85.21186
     71       2.00000          -0.825800          -22.47117
     72       2.00000          -0.823418          -22.40633
     73       2.00000          -0.774882          -21.08561
     74       2.00000          -0.772117          -21.01038
     75       2.00000          -0.771329          -20.98892
     76       2.00000          -0.771324          -20.98879
     77       2.00000          -0.767155          -20.87536
     78       2.00000          -0.766961          -20.87007
     79       2.00000          -0.765305          -20.82501
     80       2.00000          -0.757471          -20.61183
     81       2.00000          -0.746069          -20.30158
     82       2.00000          -0.696268          -18.94642
     83       2.00000          -0.448759          -12.21134
     84       2.00000          -0.412199          -11.21651
     85       2.00000          -0.267997           -7.29256
     86       2.00000          -0.248056           -6.74994
     87       2.00000          -0.246873           -6.71776
     88       2.00000          -0.208774           -5.68102
     89       2.00000          -0.205011           -5.57862
     90       2.00000          -0.200088           -5.44468
     91       0.00000          -0.103491           -2.81614
     92       0.00000          -0.084161           -2.29015
     93       0.00000          -0.056578           -1.53956
     94       0.00000          -0.009237           -0.25136
     95       0.00000           0.002869            0.07808
     96       0.00000           0.014594            0.39712
     97       0.00000           0.117962            3.20991
     98       0.00000           0.187064            5.09026
     99       0.00000           0.189739            5.16305
    100       0.00000           0.205703            5.59747
    101       0.00000           0.218397            5.94288
    102       0.00000           0.237274            6.45654
    103       0.00000           0.245847            6.68983
    104       0.00000           0.246602            6.71039
    105       0.00000           0.252011            6.85757
    106       0.00000           0.262894            7.15370
    107       0.00000           0.275788            7.50457
    108       0.00000           0.292493            7.95914
    109       0.00000           0.340114            9.25496
    110       0.00000           0.361529            9.83770
    111       0.00000           0.383527           10.43629
    112       0.00000           0.413601           11.25467
    113       0.00000           0.487286           13.25971
    114       0.00000           0.525067           14.28781

  Highest occupied state (VBM) at     -5.44468173 eV
  | Occupation number:      2.00000000

  Lowest unoccupied state (CBM) at    -2.81614171 eV
  | Occupation number:      0.00000000

  Overall HOMO-LUMO gap:      2.62854001 eV.

  | Chemical Potential                          :    -3.56862396 eV
  | Note that, for insulating systems, the printed 'chemical potential' value is not uniquely defined.
  | It can be anywhere in the energy gap, as long as it correctly separates occupied and unoccupied states.
  | In systems with a gap, the physically relevant chemical potential is the VBM or HOMO.

  Self-consistency cycle converged.


------------------------------------------------------------
  End self-consistency iteration #     9       :  max(cpu_time)    wall_clock(cpu1)
  | Time for this iteration                     :        2.594 s           5.109 s
  | Charge density & force component update     :        1.573 s           3.259 s
  | Density mixing                              :        0.021 s           0.042 s
  | Hartree multipole update                    :        0.008 s           0.017 s
  | Hartree multipole summation                 :        0.299 s           0.592 s
  | Hartree pot. SCF incomplete forces          :        0.201 s           0.388 s
  | Integration                                 :        0.481 s           0.762 s
  | Solution of K.-S. eqns.                     :        0.008 s           0.017 s
  | Total energy evaluation                     :        0.001 s           0.000 s

  Partial memory accounting:
  | Current value for overall tracked memory usage:
  |   Minimum:        0.677 MB (on task 0)
  |   Maximum:        0.677 MB (on task 0)
  |   Average:        0.677 MB
  | Peak value for overall tracked memory usage:
  |   Minimum:        3.721 MB (on task 0 after allocating d_wave)
  |   Maximum:        3.745 MB (on task 1 after allocating d_wave)
  |   Average:        3.733 MB
  | Largest tracked array allocation so far:
  |   Minimum:        1.628 MB (all_coords on task 0)
  |   Maximum:        1.628 MB (all_coords on task 1)
  |   Average:        1.628 MB
  Note:  These values currently only include a subset of arrays which are explicitly tracked.
  The "true" memory usage will be greater.
------------------------------------------------------------
  ------------------------------------------------------------
  Computing monopole / dipole moments
  | Total electronic charge [e]         :          0.180000000000000E+03
  | Total ionic charge [e]              :          0.180000000000000E+03
  | Total charge [e]                    :          0.000000000000000E+00
  | Total dipole moment [eAng]          :          0.291817735833790E-04         0.415541790880761E-04        -0.459470451462385E-03
  | Absolute dipole moment              :          0.462267694605846E-03 eAng              /                   0.222002032286256E-02 Debye  .
  Removing unitary transformations (pure translations, rotations) from forces on atoms.
  Atomic forces before filtering:
  | Net force on center of mass :  -0.771996E-06 -0.675133E-06 -0.619516E-05 eV/A
  | Net torque on center of mass:  -0.169029E-04 -0.170005E-04  0.762398E-04 eV
  Atomic forces after filtering:
  | Net force on center of mass :   0.217781E-19  0.435562E-19  0.435562E-19 eV/A
  | Net torque on center of mass:  -0.161253E-18 -0.460979E-19  0.230489E-18 eV

  Energy and forces in a compact form:
  | Total energy uncorrected      :         -0.118441303184828E+07 eV
  | Total energy corrected        :         -0.118441303184828E+07 eV  <-- do not rely on this value for anything but (periodic) metals
  | Electronic free energy        :         -0.118441303184828E+07 eV
  Total atomic forces (unitary forces cleaned) [eV/Ang]:
  |    1          0.433397563009987E-03          0.585757860002957E-04         -0.320665674486224E-03
  |    2         -0.250155323972936E-03         -0.578627007355561E-03          0.319953271563094E-03
  |    3         -0.622114156351087E-04          0.445952552708970E-03         -0.320724801532806E-03
  |    4         -0.121030823401943E-03          0.740986686462952E-04          0.321437204455936E-03

  ------------------------------------ 
  Start decomposition of the XC Energy 
  ------------------------------------ 
  X and C from original XC functional choice 
  Hartree-Fock Energy :          0.000000000 Ha              0.000000000 eV
  X Energy            :       -792.437011372 Ha         -21563.308208476 eV
  C Energy            :        -10.610301600 Ha           -288.720996495 eV
  XC Energy w/o HF    :       -803.047312972 Ha         -21852.029204971 eV
  Total XC Energy     :       -803.047312972 Ha         -21852.029204971 eV
  ------------------------------------ 
  LDA X and C from self-consistent density 
  X Energy LDA        :       -759.827180764 Ha         -20675.949569325 eV
  C Energy LDA        :        -18.362981857 Ha           -499.682159873 eV
  ------------------------------------ 
  End decomposition of the XC Energy 
  ------------------------------------ 

------------------------------------------------------------
  Relaxation / MD: End force evaluation.       :  max(cpu_time)    wall_clock(cpu1)
  | Time for this force evaluation              :       10.652 s          21.153 s

------------------------------------------------------------
  Geometry optimization: Attempting to predict improved coordinates.

  Removing unitary transformations (pure translations, rotations) from forces on atoms.
  Atomic forces before filtering:
  | Net force on center of mass :   0.217781E-19  0.435562E-19  0.435562E-19 eV/A
  | Net torque on center of mass:  -0.161253E-18 -0.460979E-19  0.230489E-18 eV
  Atomic forces after filtering:
  | Net force on center of mass :   0.000000E+00  0.435562E-19  0.435562E-19 eV/A
  | Net torque on center of mass:  -0.161253E-18 -0.460979E-19  0.276587E-18 eV
  Net remaining forces (excluding translations, rotations) in present geometry:
  || Forces on atoms   || =   0.578627E-03 eV/A.
  Maximum force component is  0.578627E-03 eV/A.
  Present geometry is converged.

------------------------------------------------------------
  Final atomic structure:
                         x [A]             y [A]             z [A]
            atom        -0.00417371       -0.01235615       -0.00644413  O
            atom         2.13657531       -0.13217828       -0.00288119  Pb
            atom         2.00074444        2.00751378        0.00134131  O
            atom        -0.13996757        2.12738103       -0.00346233  Pb
------------------------------------------------------------

------------------------------------------------------------------------------
  Final output of selected total energy values:

  The following output summarizes some interesting total energy values
  at the end of a run (AFTER all relaxation, molecular dynamics, etc.).

  | Total energy of the DFT / Hartree-Fock s.c.f. calculation      :       -1184413.031848285 eV
  | Final zero-broadening corrected energy (caution - metals only) :       -1184413.031848285 eV
  | For reference only, the value of 1 Hartree used in FHI-aims is :             27.211384500 eV

  Before relying on these values, please be sure to understand exactly which
  total energy value is referred to by a given number. Different objects may
  all carry the same name 'total energy'. Definitions:

  Total energy of the DFT / Hartree-Fock s.c.f. calculation:
  | Note that this energy does not include ANY quantities calculated after the
  | s.c.f. cycle, in particular not ANY RPA, MP2, etc. many-body perturbation terms.

  Final zero-broadening corrected energy:
  | For metallic systems only, a broadening of the occupation numbers at the Fermi
  | level can be extrapolated back to zero broadening by an electron-gas inspired
  | formula. For all systems that are not real metals, this value can be
  | meaningless and should be avoided.

------------------------------------------------------------------------------
  Methods described in the following list of references were used in this FHI-aims run.
  If you publish the results, please make sure to cite these reference if they apply.
  FHI-aims is an academic code, and for our developers (often, Ph.D. students
  and postdocs), scientific credit in the community is essential.
  Thank you for helping us!

  For any use of FHI-aims, please cite:

    Volker Blum, Ralf Gehrke, Felix Hanke, Paula Havu, Ville Havu,
    Xinguo Ren, Karsten Reuter, and Matthias Scheffler
    'Ab initio molecular simulations with numeric atom-centered orbitals'
    Computer Physics Communications 180, 2175-2196 (2009)
    http://doi.org/10.1016/j.cpc.2009.06.022


  The ELSI infrastructure was used in your run to solve the Kohn-Sham electronic structure.
  Please check out http://elsi-interchange.org to learn more.
  If scalability is important for your project, please acknowledge ELSI by citing:

    V. W-z. Yu, F. Corsetti, A. Garcia, W. P. Huhn, M. Jacquelin, W. Jia,
    B. Lange, L. Lin, J. Lu, W. Mi, A. Seifitokaldani, A. Vazquez-Mayagoitia,
    C. Yang, H. Yang, and V. Blum
    'ELSI: A unified software interface for Kohn-Sham electronic structure solvers'
    Computer Physics Communications 222, 267-285 (2018).
    http://doi.org/10.1016/j.cpc.2017.09.007


  For the real-space grid partitioning and parallelization used in this calculation, please cite:

    Ville Havu, Volker Blum, Paula Havu, and Matthias Scheffler,
    'Efficient O(N) integration for all-electron electronic structure calculation'
    'using numerically tabulated basis functions'
    Journal of Computational Physics 228, 8367-8379 (2009).
    http://doi.org/10.1016/j.jcp.2009.08.008

  Of course, there are many other important community references, e.g., those cited in the
  above references. Our list is limited to references that describe implementations in the
  FHI-aims code. The reason is purely practical (length of this list) - please credit others as well.

------------------------------------------------------------
          Leaving FHI-aims.
          Date     :  20230426, Time     :  002047.673

          Computational steps:
          | Number of self-consistency cycles          :           58
          | Number of SCF (re)initializations          :            5
          | Number of relaxation steps                 :            4

          Detailed time accounting                     :  max(cpu_time)    wall_clock(cpu1)
          | Total time                                  :       68.455 s         133.429 s
          | Preparation time                            :        0.852 s           1.209 s
          | Boundary condition initalization            :        0.001 s           0.002 s
          | Grid partitioning                           :        0.721 s           1.205 s
          | Preloading free-atom quantities on grid     :        0.575 s           0.987 s
          | Free-atom superposition energy              :        0.299 s           0.560 s
          | Total time for integrations                 :       24.510 s          47.720 s
          | Total time for solution of K.-S. equations  :        0.650 s           1.156 s
          | Total time for EV reorthonormalization      :        0.035 s           0.062 s
          | Total time for density & force components   :       32.514 s          61.670 s
          | Total time for mixing                       :        0.819 s           1.562 s
          | Total time for Hartree multipole update     :        0.514 s           0.944 s
          | Total time for Hartree multipole sum        :        6.466 s          12.902 s
          | Total time for total energy evaluation      :        0.042 s           0.168 s
          | Total time NSC force correction             :        1.025 s           2.027 s
          | Total time for scaled ZORA corrections      :        0.000 s           0.000 s

          Partial memory accounting:
          | Residual value for overall tracked memory usage across tasks:     0.000000 MB (should be 0.000000 MB)
          | Peak values for overall tracked memory usage:
          |   Minimum:        3.721 MB (on task 0 after allocating d_wave)
          |   Maximum:        3.745 MB (on task 1 after allocating d_wave)
          |   Average:        3.733 MB
          | Largest tracked array allocation:
          |   Minimum:        1.628 MB (all_coords on task 0)
          |   Maximum:        1.628 MB (all_coords on task 1)
          |   Average:        1.628 MB
          Note:  These values currently only include a subset of arrays which are explicitly tracked.
          The "true" memory usage will be greater.

          Have a nice day.
------------------------------------------------------------
